TITLE = "Sun2012 Fig.3 isotherms at x*=0.5"
VARIABLES = "Y", "Z", "T"
ZONE T="0.005", I=33, J=33, F=POINT
0.00000000e+00 0.00000000e+00 7.50000000e-01
1.61290323e-02 0.00000000e+00 5.00000000e-01
4.83870968e-02 0.00000000e+00 5.00000000e-01
8.06451613e-02 0.00000000e+00 5.00000000e-01
1.12903226e-01 0.00000000e+00 5.00000000e-01
1.45161290e-01 0.00000000e+00 5.00000000e-01
1.77419355e-01 0.00000000e+00 5.00000000e-01
2.09677419e-01 0.00000000e+00 5.00000000e-01
2.41935484e-01 0.00000000e+00 5.00000000e-01
2.74193548e-01 0.00000000e+00 5.00000000e-01
3.06451613e-01 0.00000000e+00 5.00000000e-01
3.38709677e-01 0.00000000e+00 5.00000000e-01
3.70967742e-01 0.00000000e+00 5.00000000e-01
4.03225806e-01 0.00000000e+00 5.00000000e-01
4.35483871e-01 0.00000000e+00 5.00000000e-01
4.67741935e-01 0.00000000e+00 5.00000000e-01
5.00000000e-01 0.00000000e+00 5.00000000e-01
5.32258065e-01 0.00000000e+00 5.00000000e-01
5.64516129e-01 0.00000000e+00 5.00000000e-01
5.96774194e-01 0.00000000e+00 5.00000000e-01
6.29032258e-01 0.00000000e+00 5.00000000e-01
6.61290323e-01 0.00000000e+00 5.00000000e-01
6.93548387e-01 0.00000000e+00 5.00000000e-01
7.25806452e-01 0.00000000e+00 5.00000000e-01
7.58064516e-01 0.00000000e+00 5.00000000e-01
7.90322581e-01 0.00000000e+00 5.00000000e-01
8.22580645e-01 0.00000000e+00 5.00000000e-01
8.54838710e-01 0.00000000e+00 5.00000000e-01
8.87096774e-01 0.00000000e+00 5.00000000e-01
9.19354839e-01 0.00000000e+00 5.00000000e-01
9.51612903e-01 0.00000000e+00 5.00000000e-01
9.83870968e-01 0.00000000e+00 5.00000000e-01
1.00000000e+00 0.00000000e+00 5.00000000e-01
0.00000000e+00 1.61290323e-02 1.00000000e+00
1.61290323e-02 1.61290323e-02 7.51139898e-01
4.83870968e-02 1.61290323e-02 6.73560060e-01
8.06451613e-02 1.61290323e-02 6.20439279e-01
1.12903226e-01 1.61290323e-02 5.85860270e-01
1.45161290e-01 1.61290323e-02 5.63340012e-01
1.77419355e-01 1.61290323e-02 5.48584866e-01
2.09677419e-01 1.61290323e-02 5.38784100e-01
2.41935484e-01 1.61290323e-02 5.32107266e-01
2.74193548e-01 1.61290323e-02 5.27384272e-01
3.06451613e-01 1.61290323e-02 5.23885479e-01
3.38709677e-01 1.61290323e-02 5.21166474e-01
3.70967742e-01 1.61290323e-02 5.18961327e-01
4.03225806e-01 1.61290323e-02 5.17110911e-01
4.35483871e-01 1.61290323e-02 5.15518618e-01
4.67741935e-01 1.61290323e-02 5.14123725e-01
5.00000000e-01 1.61290323e-02 5.12886188e-01
5.32258065e-01 1.61290323e-02 5.11778227e-01
5.64516129e-01 1.61290323e-02 5.10779734e-01
5.96774194e-01 1.61290323e-02 5.09875665e-01
6.29032258e-01 1.61290323e-02 5.09054430e-01
6.61290323e-01 1.61290323e-02 5.08306749e-01
6.93548387e-01 1.61290323e-02 5.07624696e-01
7.25806452e-01 1.61290323e-02 5.07000792e-01
7.58064516e-01 1.61290323e-02 5.06427003e-01
7.90322581e-01 1.61290323e-02 5.05893621e-01
8.22580645e-01 1.61290323e-02 5.05387723e-01
8.54838710e-01 1.61290323e-02 5.04890296e-01
8.87096774e-01 1.61290323e-02 5.04369235e-01
9.19354839e-01 1.61290323e-02 5.03778730e-01
9.51612903e-01 1.61290323e-02 5.03051119e-01
9.83870968e-01 1.61290323e-02 5.02166935e-01
1.00000000e+00 1.61290323e-02 5.00000000e-01
0.00000000e+00 4.83870968e-02 1.00000000e+00
1.61290323e-02 4.83870968e-02 8.17959478e-01
4.83870968e-02 4.83870968e-02 7.36880676e-01
8.06451613e-02 4.83870968e-02 6.68087345e-01
1.12903226e-01 4.83870968e-02 6.22075475e-01
1.45161290e-01 4.83870968e-02 5.91418285e-01
1.77419355e-01 4.83870968e-02 5.70970545e-01
2.09677419e-01 4.83870968e-02 5.57227190e-01
2.41935484e-01 4.83870968e-02 5.47777641e-01
2.74193548e-01 4.83870968e-02 5.41022857e-01
3.06451613e-01 4.83870968e-02 5.35950004e-01
3.38709677e-01 4.83870968e-02 5.31943822e-01
3.70967742e-01 4.83870968e-02 5.28642163e-01
4.03225806e-01 4.83870968e-02 5.25833752e-01
4.35483871e-01 4.83870968e-02 5.23393218e-01
4.67741935e-01 4.83870968e-02 5.21242521e-01
5.00000000e-01 4.83870968e-02 5.19329554e-01
5.32258065e-01 4.83870968e-02 5.17616985e-01
5.64516129e-01 4.83870968e-02 5.16076604e-01
5.96774194e-01 4.83870968e-02 5.14686321e-01
6.29032258e-01 4.83870968e-02 5.13428409e-01
6.61290323e-01 4.83870968e-02 5.12288231e-01
6.93548387e-01 4.83870968e-02 5.11252987e-01
7.25806452e-01 4.83870968e-02 5.10310328e-01
7.58064516e-01 4.83870968e-02 5.09446619e-01
7.90322581e-01 4.83870968e-02 5.08645287e-01
8.22580645e-01 4.83870968e-02 5.07886828e-01
8.54838710e-01 4.83870968e-02 5.07140534e-01
8.87096774e-01 4.83870968e-02 5.06341515e-01
9.19354839e-01 4.83870968e-02 5.05401242e-01
9.51612903e-01 4.83870968e-02 5.04179678e-01
9.83870968e-01 4.83870968e-02 5.02899948e-01
1.00000000e+00 4.83870968e-02 5.00000000e-01
0.00000000e+00 8.06451613e-02 1.00000000e+00
1.61290323e-02 8.06451613e-02 8.56524395e-01
4.83870968e-02 8.06451613e-02 7.81537048e-01
8.06451613e-02 8.06451613e-02 7.09213949e-01
1.12903226e-01 8.06451613e-02 6.55665291e-01
1.45161290e-01 8.06451613e-02 6.18239037e-01
1.77419355e-01 8.06451613e-02 5.92566999e-01
2.09677419e-01 8.06451613e-02 5.75004217e-01
2.41935484e-01 8.06451613e-02 5.62788366e-01
2.74193548e-01 8.06451613e-02 5.53987227e-01
3.06451613e-01 8.06451613e-02 5.47339401e-01
3.38709677e-01 8.06451613e-02 5.42066098e-01
3.70967742e-01 8.06451613e-02 5.37704391e-01
4.03225806e-01 8.06451613e-02 5.33983712e-01
4.35483871e-01 8.06451613e-02 5.30743791e-01
4.67741935e-01 8.06451613e-02 5.27885074e-01
5.00000000e-01 8.06451613e-02 5.25341096e-01
5.32258065e-01 8.06451613e-02 5.23064023e-01
5.64516129e-01 8.06451613e-02 5.21017323e-01
5.96774194e-01 8.06451613e-02 5.19172030e-01
6.29032258e-01 8.06451613e-02 5.17504636e-01
6.61290323e-01 8.06451613e-02 5.15995420e-01
6.93548387e-01 8.06451613e-02 5.14626944e-01
7.25806452e-01 8.06451613e-02 5.13382272e-01
7.58064516e-01 8.06451613e-02 5.12242664e-01
7.90322581e-01 8.06451613e-02 5.11185353e-01
8.22580645e-01 8.06451613e-02 5.10183764e-01
8.54838710e-01 8.06451613e-02 5.09195790e-01
8.87096774e-01 8.06451613e-02 5.08133049e-01
9.19354839e-01 8.06451613e-02 5.06876298e-01
9.51612903e-01 8.06451613e-02 5.05248434e-01
9.83870968e-01 8.06451613e-02 5.03485734e-01
1.00000000e+00 8.06451613e-02 5.00000000e-01
0.00000000e+00 1.12903226e-01 1.00000000e+00
1.61290323e-02 1.12903226e-01 8.77661042e-01
4.83870968e-02 1.12903226e-01 8.05259841e-01
8.06451613e-02 1.12903226e-01 7.33079914e-01
1.12903226e-01 1.12903226e-01 6.76503368e-01
1.45161290e-01 1.12903226e-01 6.35624965e-01
1.77419355e-01 1.12903226e-01 6.06956558e-01
2.09677419e-01 1.12903226e-01 5.87063946e-01
2.41935484e-01 1.12903226e-01 5.73099172e-01
2.74193548e-01 1.12903226e-01 5.62974015e-01
3.06451613e-01 1.12903226e-01 5.55289767e-01
3.38709677e-01 1.12903226e-01 5.49170729e-01
3.70967742e-01 1.12903226e-01 5.44093290e-01
4.03225806e-01 1.12903226e-01 5.39750933e-01
4.35483871e-01 1.12903226e-01 5.35962246e-01
4.67741935e-01 1.12903226e-01 5.32614662e-01
5.00000000e-01 1.12903226e-01 5.29632903e-01
5.32258065e-01 1.12903226e-01 5.26962479e-01
5.64516129e-01 1.12903226e-01 5.24561438e-01
5.96774194e-01 1.12903226e-01 5.22396212e-01
6.29032258e-01 1.12903226e-01 5.20439267e-01
6.61290323e-01 1.12903226e-01 5.18667374e-01
6.93548387e-01 1.12903226e-01 5.17059906e-01
7.25806452e-01 1.12903226e-01 5.15596802e-01
7.58064516e-01 1.12903226e-01 5.14255870e-01
7.90322581e-01 1.12903226e-01 5.13010153e-01
8.22580645e-01 1.12903226e-01 5.11828461e-01
8.54838710e-01 1.12903226e-01 5.10660581e-01
8.87096774e-01 1.12903226e-01 5.09402642e-01
9.19354839e-01 1.12903226e-01 5.07916067e-01
9.51612903e-01 1.12903226e-01 5.06002609e-01
9.83870968e-01 1.12903226e-01 5.03928485e-01
1.00000000e+00 1.12903226e-01 5.00000000e-01
0.00000000e+00 1.45161290e-01 1.00000000e+00
1.61290323e-02 1.45161290e-01 8.89294574e-01
4.83870968e-02 1.45161290e-01 8.18119521e-01
8.06451613e-02 1.45161290e-01 7.46767329e-01
1.12903226e-01 1.45161290e-01 6.89171803e-01
1.45161290e-01 1.45161290e-01 6.46696775e-01
1.77419355e-01 1.45161290e-01 6.16439533e-01
2.09677419e-01 1.45161290e-01 5.95201167e-01
2.41935484e-01 1.45161290e-01 5.80164697e-01
2.74193548e-01 1.45161290e-01 5.69193265e-01
3.06451613e-01 1.45161290e-01 5.60826971e-01
3.38709677e-01 1.45161290e-01 5.54141213e-01
3.70967742e-01 1.45161290e-01 5.48579671e-01
4.03225806e-01 1.45161290e-01 5.43815632e-01
4.35483871e-01 1.45161290e-01 5.39655292e-01
4.67741935e-01 1.45161290e-01 5.35977934e-01
5.00000000e-01 1.45161290e-01 5.32702259e-01
5.32258065e-01 1.45161290e-01 5.29768807e-01
5.64516129e-01 1.45161290e-01 5.27131286e-01
5.96774194e-01 1.45161290e-01 5.24752298e-01
6.29032258e-01 1.45161290e-01 5.22600963e-01
6.61290323e-01 1.45161290e-01 5.20651178e-01
6.93548387e-01 1.45161290e-01 5.18879830e-01
7.25806452e-01 1.45161290e-01 5.17264572e-01
7.58064516e-01 1.45161290e-01 5.15780870e-01
7.90322581e-01 1.45161290e-01 5.14399026e-01
8.22580645e-01 1.45161290e-01 5.13085235e-01
8.54838710e-01 1.45161290e-01 5.11783018e-01
8.87096774e-01 1.45161290e-01 5.10378598e-01
9.19354839e-01 1.45161290e-01 5.08719654e-01
9.51612903e-01 1.45161290e-01 5.06592902e-01
9.83870968e-01 1.45161290e-01 5.04293886e-01
1.00000000e+00 1.45161290e-01 5.00000000e-01
0.00000000e+00 1.77419355e-01 1.00000000e+00
1.61290323e-02 1.77419355e-01 8.95761861e-01
4.83870968e-02 1.77419355e-01 8.25269142e-01
8.06451613e-02 1.77419355e-01 7.54737229e-01
1.12903226e-01 1.77419355e-01 6.96942907e-01
1.45161290e-01 1.77419355e-01 6.53820562e-01
1.77419355e-01 1.77419355e-01 6.22785086e-01
2.09677419e-01 1.77419355e-01 6.00806049e-01
2.41935484e-01 1.77419355e-01 5.85125836e-01
2.74193548e-01 1.77419355e-01 5.73610350e-01
3.06451613e-01 1.77419355e-01 5.64782946e-01
3.38709677e-01 1.77419355e-01 5.57700979e-01
3.70967742e-01 1.77419355e-01 5.51794663e-01
4.03225806e-01 1.77419355e-01 5.46728459e-01
4.35483871e-01 1.77419355e-01 5.42302728e-01
4.67741935e-01 1.77419355e-01 5.38392364e-01
5.00000000e-01 1.77419355e-01 5.34912148e-01
5.32258065e-01 1.77419355e-01 5.31798785e-01
5.64516129e-01 1.77419355e-01 5.29002180e-01
5.96774194e-01 1.77419355e-01 5.26481302e-01
6.29032258e-01 1.77419355e-01 5.24201964e-01
6.61290323e-01 1.77419355e-01 5.22135191e-01
6.93548387e-01 1.77419355e-01 5.20255443e-01
7.25806452e-01 1.77419355e-01 5.18538291e-01
7.58064516e-01 1.77419355e-01 5.16957287e-01
7.90322581e-01 1.77419355e-01 5.15480701e-01
8.22580645e-01 1.77419355e-01 5.14073272e-01
8.54838710e-01 1.77419355e-01 5.12673161e-01
8.87096774e-01 1.77419355e-01 5.11160147e-01
9.19354839e-01 1.77419355e-01 5.09371178e-01
9.51612903e-01 1.77419355e-01 5.07079663e-01
9.83870968e-01 1.77419355e-01 5.04606666e-01
1.00000000e+00 1.77419355e-01 5.00000000e-01
0.00000000e+00 2.09677419e-01 1.00000000e+00
1.61290323e-02 2.09677419e-01 8.99417739e-01
4.83870968e-02 2.09677419e-01 8.29379416e-01
8.06451613e-02 2.09677419e-01 7.59524852e-01
1.12903226e-01 2.09677419e-01 7.01840796e-01
1.45161290e-01 2.09677419e-01 6.58524790e-01
1.77419355e-01 2.09677419e-01 6.27149988e-01
2.09677419e-01 2.09677419e-01 6.04787008e-01
2.41935484e-01 2.09677419e-01 5.88729855e-01
2.74193548e-01 2.09677419e-01 5.76864373e-01
3.06451613e-01 2.09677419e-01 5.67718402e-01
3.38709677e-01 2.09677419e-01 5.60348446e-01
3.70967742e-01 2.09677419e-01 5.54183114e-01
4.03225806e-01 2.09677419e-01 5.48885695e-01
4.35483871e-01 2.09677419e-01 5.44255596e-01
4.67741935e-01 2.09677419e-01 5.40166457e-01
5.00000000e-01 2.09677419e-01 5.36531190e-01
5.32258065e-01 2.09677419e-01 5.33283978e-01
5.64516129e-01 2.09677419e-01 5.30371735e-01
5.96774194e-01 2.09677419e-01 5.27750243e-01
6.29032258e-01 2.09677419e-01 5.25382217e-01
6.61290323e-01 2.09677419e-01 5.23235872e-01
6.93548387e-01 2.09677419e-01 5.21283248e-01
7.25806452e-01 2.09677419e-01 5.19497857e-01
7.58064516e-01 2.09677419e-01 5.17851459e-01
7.90322581e-01 2.09677419e-01 5.16310552e-01
8.22580645e-01 2.09677419e-01 5.14838856e-01
8.54838710e-01 2.09677419e-01 5.13369902e-01
8.87096774e-01 2.09677419e-01 5.11778861e-01
9.19354839e-01 2.09677419e-01 5.09893899e-01
9.51612903e-01 2.09677419e-01 5.07476021e-01
9.83870968e-01 2.09677419e-01 5.04868110e-01
1.00000000e+00 2.09677419e-01 5.00000000e-01
0.00000000e+00 2.41935484e-01 1.00000000e+00
1.61290323e-02 2.41935484e-01 9.01535775e-01
4.83870968e-02 2.41935484e-01 8.31848571e-01
8.06451613e-02 2.41935484e-01 7.62528530e-01
1.12903226e-01 2.41935484e-01 7.05054344e-01
1.45161290e-01 2.41935484e-01 6.61746790e-01
1.77419355e-01 2.41935484e-01 6.30257018e-01
2.09677419e-01 2.41935484e-01 6.07711702e-01
2.41935484e-01 2.41935484e-01 5.91441030e-01
2.74193548e-01 2.41935484e-01 5.79352054e-01
3.06451613e-01 2.41935484e-01 5.69984423e-01
3.38709677e-01 2.41935484e-01 5.62401442e-01
3.70967742e-01 2.41935484e-01 5.56036113e-01
4.03225806e-01 2.41935484e-01 5.50554793e-01
4.35483871e-01 2.41935484e-01 5.45758895e-01
4.67741935e-01 2.41935484e-01 5.41522967e-01
5.00000000e-01 2.41935484e-01 5.37759721e-01
5.32258065e-01 2.41935484e-01 5.34402165e-01
5.64516129e-01 2.41935484e-01 5.31395311e-01
5.96774194e-01 2.41935484e-01 5.28692627e-01
6.29032258e-01 2.41935484e-01 5.26254392e-01
6.61290323e-01 2.41935484e-01 5.24046500e-01
6.93548387e-01 2.41935484e-01 5.22038913e-01
7.25806452e-01 2.41935484e-01 5.20203330e-01
7.58064516e-01 2.41935484e-01 5.18509905e-01
7.90322581e-01 2.41935484e-01 5.16923568e-01
8.22580645e-01 2.41935484e-01 5.15407009e-01
8.54838710e-01 2.41935484e-01 5.13890197e-01
8.87096774e-01 2.41935484e-01 5.12244462e-01
9.19354839e-01 2.41935484e-01 5.10290984e-01
9.51612903e-01 2.41935484e-01 5.07780206e-01
9.83870968e-01 2.41935484e-01 5.05072636e-01
1.00000000e+00 2.41935484e-01 5.00000000e-01
0.00000000e+00 2.74193548e-01 1.00000000e+00
1.61290323e-02 2.74193548e-01 9.02803199e-01
4.83870968e-02 2.74193548e-01 8.33409643e-01
8.06451613e-02 2.74193548e-01 7.64507160e-01
1.12903226e-01 2.74193548e-01 7.07257819e-01
1.45161290e-01 2.74193548e-01 6.64039057e-01
1.77419355e-01 2.74193548e-01 6.32541834e-01
2.09677419e-01 2.74193548e-01 6.09923360e-01
2.41935484e-01 2.74193548e-01 5.93537091e-01
2.74193548e-01 2.74193548e-01 5.81307371e-01
3.06451613e-01 2.74193548e-01 5.71786373e-01
3.38709677e-01 2.74193548e-01 5.64046425e-01
3.70967742e-01 2.74193548e-01 5.57527055e-01
4.03225806e-01 2.74193548e-01 5.51899300e-01
4.35483871e-01 2.74193548e-01 5.46967738e-01
4.67741935e-01 2.74193548e-01 5.42608766e-01
5.00000000e-01 2.74193548e-01 5.38735804e-01
5.32258065e-01 2.74193548e-01 5.35281642e-01
5.64516129e-01 2.74193548e-01 5.32190410e-01
5.96774194e-01 2.74193548e-01 5.29414288e-01
6.29032258e-01 2.74193548e-01 5.26912098e-01
6.61290323e-01 2.74193548e-01 5.24648277e-01
6.93548387e-01 2.74193548e-01 5.22591438e-01
7.25806452e-01 2.74193548e-01 5.20712045e-01
7.58064516e-01 2.74193548e-01 5.18979081e-01
7.90322581e-01 2.74193548e-01 5.17356268e-01
8.22580645e-01 2.74193548e-01 5.15805133e-01
8.54838710e-01 2.74193548e-01 5.14253554e-01
8.87096774e-01 2.74193548e-01 5.12569289e-01
9.19354839e-01 2.74193548e-01 5.10568432e-01
9.51612903e-01 2.74193548e-01 5.07993536e-01
9.83870968e-01 2.74193548e-01 5.05218120e-01
1.00000000e+00 2.74193548e-01 5.00000000e-01
0.00000000e+00 3.06451613e-01 1.00000000e+00
1.61290323e-02 3.06451613e-01 9.03590461e-01
4.83870968e-02 3.06451613e-01 8.34447189e-01
8.06451613e-02 3.06451613e-01 7.65869983e-01
1.12903226e-01 3.06451613e-01 7.08826912e-01
1.45161290e-01 3.06451613e-01 6.65720017e-01
1.77419355e-01 3.06451613e-01 6.34261767e-01
2.09677419e-01 3.06451613e-01 6.11626270e-01
2.41935484e-01 3.06451613e-01 5.95181513e-01
2.74193548e-01 3.06451613e-01 5.82864677e-01
3.06451613e-01 3.06451613e-01 5.73238860e-01
3.38709677e-01 3.06451613e-01 5.65385169e-01
3.70967742e-01 3.06451613e-01 5.58749773e-01
4.03225806e-01 3.06451613e-01 5.53008405e-01
4.35483871e-01 3.06451613e-01 5.47968700e-01
4.67741935e-01 3.06451613e-01 5.43508812e-01
5.00000000e-01 3.06451613e-01 5.39542961e-01
5.32258065e-01 3.06451613e-01 5.36004083e-01
5.64516129e-01 3.06451613e-01 5.32836072e-01
5.96774194e-01 3.06451613e-01 5.29990689e-01
6.29032258e-01 3.06451613e-01 5.27426279e-01
6.61290323e-01 3.06451613e-01 5.25106822e-01
6.93548387e-01 3.06451613e-01 5.23000496e-01
7.25806452e-01 3.06451613e-01 5.21077338e-01
7.58064516e-01 3.06451613e-01 5.19305797e-01
7.90322581e-01 3.06451613e-01 5.17648925e-01
8.22580645e-01 3.06451613e-01 5.16067031e-01
8.54838710e-01 3.06451613e-01 5.14487554e-01
8.87096774e-01 3.06451613e-01 5.12774820e-01
9.19354839e-01 3.06451613e-01 5.10741708e-01
9.51612903e-01 3.06451613e-01 5.08125808e-01
9.83870968e-01 3.06451613e-01 5.05309196e-01
1.00000000e+00 3.06451613e-01 5.00000000e-01
0.00000000e+00 3.38709677e-01 1.00000000e+00
1.61290323e-02 3.38709677e-01 9.04097518e-01
4.83870968e-02 3.38709677e-01 8.35164069e-01
8.06451613e-02 3.38709677e-01 7.66838420e-01
1.12903226e-01 3.38709677e-01 7.09970688e-01
1.45161290e-01 3.38709677e-01 6.66972438e-01
1.77419355e-01 3.38709677e-01 6.35568453e-01
2.09677419e-01 3.38709677e-01 6.12942389e-01
2.41935484e-01 3.38709677e-01 5.96471255e-01
2.74193548e-01 3.38709677e-01 5.84101460e-01
3.06451613e-01 3.38709677e-01 5.74405002e-01
3.38709677e-01 3.38709677e-01 5.66470699e-01
3.70967742e-01 3.38709677e-01 5.59750659e-01
4.03225806e-01 3.38709677e-01 5.53924632e-01
4.35483871e-01 3.38709677e-01 5.48802581e-01
4.67741935e-01 3.38709677e-01 5.44263743e-01
5.00000000e-01 3.38709677e-01 5.40222666e-01
5.32258065e-01 3.38709677e-01 5.36612291e-01
5.64516129e-01 3.38709677e-01 5.33376489e-01
5.96774194e-01 3.38709677e-01 5.30467127e-01
6.29032258e-01 3.38709677e-01 5.27842825e-01
6.61290323e-01 3.38709677e-01 5.25467967e-01
6.93548387e-01 3.38709677e-01 5.23311169e-01
7.25806452e-01 3.38709677e-01 5.21342846e-01
7.58064516e-01 3.38709677e-01 5.19531608e-01
7.90322581e-01 3.38709677e-01 5.17840434e-01
8.22580645e-01 3.38709677e-01 5.16228521e-01
8.54838710e-01 3.38709677e-01 5.14624324e-01
8.87096774e-01 3.38709677e-01 5.12889034e-01
9.19354839e-01 3.38709677e-01 5.10834001e-01
9.51612903e-01 3.38709677e-01 5.08194203e-01
9.83870968e-01 3.38709677e-01 5.05356227e-01
1.00000000e+00 3.38709677e-01 5.00000000e-01
0.00000000e+00 3.70967742e-01 1.00000000e+00
1.61290323e-02 3.70967742e-01 9.04432716e-01
4.83870968e-02 3.70967742e-01 8.35668718e-01
8.06451613e-02 3.70967742e-01 7.67534075e-01
1.12903226e-01 3.70967742e-01 7.10807267e-01
1.45161290e-01 3.70967742e-01 6.67902775e-01
1.77419355e-01 3.70967742e-01 6.36552727e-01
2.09677419e-01 3.70967742e-01 6.13946196e-01
2.41935484e-01 3.70967742e-01 5.97465748e-01
2.74193548e-01 3.70967742e-01 5.85064331e-01
3.06451613e-01 3.70967742e-01 5.75320977e-01
3.38709677e-01 3.70967742e-01 5.67330969e-01
3.70967742e-01 3.70967742e-01 5.60551421e-01
4.03225806e-01 3.70967742e-01 5.54665260e-01
4.35483871e-01 3.70967742e-01 5.49483938e-01
4.67741935e-01 3.70967742e-01 5.44886975e-01
5.00000000e-01 3.70967742e-01 5.40788606e-01
5.32258065e-01 3.70967742e-01 5.37121382e-01
5.64516129e-01 3.70967742e-01 5.33829059e-01
5.96774194e-01 3.70967742e-01 5.30863803e-01
6.29032258e-01 3.70967742e-01 5.28184929e-01
6.61290323e-01 3.70967742e-01 5.25757784e-01
6.93548387e-01 3.70967742e-01 5.23552048e-01
7.25806452e-01 3.70967742e-01 5.21539131e-01
7.58064516e-01 3.70967742e-01 5.19688368e-01
7.90322581e-01 3.70967742e-01 5.17963197e-01
8.22580645e-01 3.70967742e-01 5.16321912e-01
8.54838710e-01 3.70967742e-01 5.14695078e-01
8.87096774e-01 3.70967742e-01 5.12941380e-01
9.19354839e-01 3.70967742e-01 5.10871745e-01
9.51612903e-01 3.70967742e-01 5.08219518e-01
9.83870968e-01 3.70967742e-01 5.05372176e-01
1.00000000e+00 3.70967742e-01 5.00000000e-01
0.00000000e+00 4.03225806e-01 1.00000000e+00
1.61290323e-02 4.03225806e-01 9.04655156e-01
4.83870968e-02 4.03225806e-01 8.36020168e-01
8.06451613e-02 4.03225806e-01 7.68025036e-01
1.12903226e-01 4.03225806e-01 7.11404767e-01
1.45161290e-01 4.03225806e-01 6.68574225e-01
1.77419355e-01 4.03225806e-01 6.37269977e-01
2.09677419e-01 4.03225806e-01 6.14684093e-01
2.41935484e-01 4.03225806e-01 5.98202466e-01
2.74193548e-01 4.03225806e-01 5.85782573e-01
3.06451613e-01 4.03225806e-01 5.76008793e-01
3.38709677e-01 4.03225806e-01 5.67981574e-01
3.70967742e-01 4.03225806e-01 5.61162052e-01
4.03225806e-01 4.03225806e-01 5.55235537e-01
4.35483871e-01 4.03225806e-01 5.50014285e-01
4.67741935e-01 4.03225806e-01 5.45377513e-01
5.00000000e-01 4.03225806e-01 5.41238651e-01
5.32258065e-01 4.03225806e-01 5.37529512e-01
5.64516129e-01 4.03225806e-01 5.34193547e-01
5.96774194e-01 4.03225806e-01 5.31183191e-01
6.29032258e-01 4.03225806e-01 5.28458561e-01
6.61290323e-01 4.03225806e-01 5.25986169e-01
6.93548387e-01 4.03225806e-01 5.23737024e-01
7.25806452e-01 4.03225806e-01 5.21683817e-01
7.58064516e-01 4.03225806e-01 5.19796902e-01
7.90322581e-01 4.03225806e-01 5.18040435e-01
8.22580645e-01 4.03225806e-01 5.16372096e-01
8.54838710e-01 4.03225806e-01 5.14724823e-01
8.87096774e-01 4.03225806e-01 5.12955283e-01
9.19354839e-01 4.03225806e-01 5.10873609e-01
9.51612903e-01 4.03225806e-01 5.08215567e-01
9.83870968e-01 4.03225806e-01 5.05369088e-01
1.00000000e+00 4.03225806e-01 5.00000000e-01
0.00000000e+00 4.35483871e-01 1.00000000e+00
1.61290323e-02 4.35483871e-01 9.04797460e-01
4.83870968e-02 4.35483871e-01 8.36252228e-01
8.06451613e-02 4.35483871e-01 7.68351824e-01
1.12903226e-01 4.35483871e-01 7.11805461e-01
1.45161290e-01 4.35483871e-01 6.69027617e-01
1.77419355e-01 4.35483871e-01 6.37757473e-01
2.09677419e-01 4.35483871e-01 6.15188649e-01
2.41935484e-01 4.35483871e-01 5.98708913e-01
2.74193548e-01 4.35483871e-01 5.86278684e-01
3.06451613e-01 4.35483871e-01 5.76486126e-01
3.38709677e-01 4.35483871e-01 5.68435484e-01
3.70967742e-01 4.35483871e-01 5.61590865e-01
4.03225806e-01 4.35483871e-01 5.55639251e-01
4.35483871e-01 4.35483871e-01 5.50393268e-01
4.67741935e-01 4.35483871e-01 5.45731577e-01
5.00000000e-01 4.35483871e-01 5.41566656e-01
5.32258065e-01 4.35483871e-01 5.37829464e-01
5.64516129e-01 4.35483871e-01 5.34463039e-01
5.96774194e-01 4.35483871e-01 5.31419971e-01
6.29032258e-01 4.35483871e-01 5.28661060e-01
6.61290323e-01 4.35483871e-01 5.26153880e-01
6.93548387e-01 4.35483871e-01 5.23870683e-01
7.25806452e-01 4.35483871e-01 5.21785393e-01
7.58064516e-01 4.35483871e-01 5.19869388e-01
7.90322581e-01 4.35483871e-01 5.18087584e-01
8.22580645e-01 4.35483871e-01 5.16397333e-01
8.54838710e-01 4.35483871e-01 5.14733764e-01
8.87096774e-01 4.35483871e-01 5.12951727e-01
9.19354839e-01 4.35483871e-01 5.10862873e-01
9.51612903e-01 4.35483871e-01 5.08203181e-01
9.83870968e-01 4.35483871e-01 5.05358986e-01
1.00000000e+00 4.35483871e-01 5.00000000e-01
0.00000000e+00 4.67741935e-01 1.00000000e+00
1.61290323e-02 4.67741935e-01 9.04877300e-01
4.83870968e-02 4.67741935e-01 8.36384917e-01
8.06451613e-02 4.67741935e-01 7.68539131e-01
1.12903226e-01 4.67741935e-01 7.12035764e-01
1.45161290e-01 4.67741935e-01 6.69289023e-01
1.77419355e-01 4.67741935e-01 6.38039490e-01
2.09677419e-01 4.67741935e-01 6.15481525e-01
2.41935484e-01 4.67741935e-01 5.99003797e-01
2.74193548e-01 4.67741935e-01 5.86568366e-01
3.06451613e-01 4.67741935e-01 5.76765637e-01
3.38709677e-01 4.67741935e-01 5.68702168e-01
3.70967742e-01 4.67741935e-01 5.61843892e-01
4.03225806e-01 4.67741935e-01 5.55878784e-01
4.35483871e-01 4.67741935e-01 5.50619619e-01
4.67741935e-01 4.67741935e-01 5.45944585e-01
5.00000000e-01 4.67741935e-01 5.41765429e-01
5.32258065e-01 4.67741935e-01 5.38012449e-01
5.64516129e-01 4.67741935e-01 5.34628316e-01
5.96774194e-01 4.67741935e-01 5.31565678e-01
6.29032258e-01 4.67741935e-01 5.28785772e-01
6.61290323e-01 4.67741935e-01 5.26256891e-01
6.93548387e-01 4.67741935e-01 5.23952141e-01
7.25806452e-01 4.67741935e-01 5.21846319e-01
7.58064516e-01 4.67741935e-01 5.19911550e-01
7.90322581e-01 4.67741935e-01 5.18113345e-01
8.22580645e-01 4.67741935e-01 5.16408908e-01
8.54838710e-01 4.67741935e-01 5.14734671e-01
8.87096774e-01 4.67741935e-01 5.12945406e-01
9.19354839e-01 4.67741935e-01 5.10852381e-01
9.51612903e-01 4.67741935e-01 5.08192140e-01
9.83870968e-01 4.67741935e-01 5.05349742e-01
1.00000000e+00 4.67741935e-01 5.00000000e-01
0.00000000e+00 5.00000000e-01 1.00000000e+00
1.61290323e-02 5.00000000e-01 9.04904914e-01
4.83870968e-02 5.00000000e-01 8.36439167e-01
8.06451613e-02 5.00000000e-01 7.68617189e-01
1.12903226e-01 5.00000000e-01 7.12133410e-01
1.45161290e-01 5.00000000e-01 6.69401363e-01
1.77419355e-01 5.00000000e-01 6.38161905e-01
2.09677419e-01 5.00000000e-01 6.15609507e-01
2.41935484e-01 5.00000000e-01 5.99133256e-01
2.74193548e-01 5.00000000e-01 5.86696016e-01
3.06451613e-01 5.00000000e-01 5.76889236e-01
3.38709677e-01 5.00000000e-01 5.68820540e-01
3.70967742e-01 5.00000000e-01 5.61956694e-01
4.03225806e-01 5.00000000e-01 5.55986118e-01
4.35483871e-01 5.00000000e-01 5.50721615e-01
4.67741935e-01 5.00000000e-01 5.46041102e-01
5.00000000e-01 5.00000000e-01 5.41855934e-01
5.32258065e-01 5.00000000e-01 5.38096085e-01
5.64516129e-01 5.00000000e-01 5.34704058e-01
5.96774194e-01 5.00000000e-01 5.31632521e-01
6.29032258e-01 5.00000000e-01 5.28842918e-01
6.61290323e-01 5.00000000e-01 5.26303894e-01
6.93548387e-01 5.00000000e-01 5.23988991e-01
7.25806452e-01 5.00000000e-01 5.21873450e-01
7.58064516e-01 5.00000000e-01 5.19929793e-01
7.90322581e-01 5.00000000e-01 5.18123859e-01
8.22580645e-01 5.00000000e-01 5.16412789e-01
8.54838710e-01 5.00000000e-01 5.14733923e-01
8.87096774e-01 5.00000000e-01 5.12941348e-01
9.19354839e-01 5.00000000e-01 5.10846285e-01
9.51612903e-01 5.00000000e-01 5.08185981e-01
9.83870968e-01 5.00000000e-01 5.05345729e-01
1.00000000e+00 5.00000000e-01 5.00000000e-01
0.00000000e+00 5.32258065e-01 1.00000000e+00
1.61290323e-02 5.32258065e-01 9.04877147e-01
4.83870968e-02 5.32258065e-01 8.36385304e-01
8.06451613e-02 5.32258065e-01 7.68539784e-01
1.12903226e-01 5.32258065e-01 7.12036657e-01
1.45161290e-01 5.32258065e-01 6.69290104e-01
1.77419355e-01 5.32258065e-01 6.38040704e-01
2.09677419e-01 5.32258065e-01 6.15482828e-01
2.41935484e-01 5.32258065e-01 5.99005148e-01
2.74193548e-01 5.32258065e-01 5.86569729e-01
3.06451613e-01 5.32258065e-01 5.76766986e-01
3.38709677e-01 5.32258065e-01 5.68703490e-01
3.70967742e-01 5.32258065e-01 5.61845181e-01
4.03225806e-01 5.32258065e-01 5.55880040e-01
4.35483871e-01 5.32258065e-01 5.50620842e-01
4.67741935e-01 5.32258065e-01 5.45945770e-01
5.00000000e-01 5.32258065e-01 5.41766565e-01
5.32258065e-01 5.32258065e-01 5.38013516e-01
5.64516129e-01 5.32258065e-01 5.34629293e-01
5.96774194e-01 5.32258065e-01 5.31566543e-01
6.29032258e-01 5.32258065e-01 5.28786508e-01
6.61290323e-01 5.32258065e-01 5.26257486e-01
6.93548387e-01 5.32258065e-01 5.23952589e-01
7.25806452e-01 5.32258065e-01 5.21846624e-01
7.58064516e-01 5.32258065e-01 5.19911722e-01
7.90322581e-01 5.32258065e-01 5.18113401e-01
8.22580645e-01 5.32258065e-01 5.16408862e-01
8.54838710e-01 5.32258065e-01 5.14734573e-01
8.87096774e-01 5.32258065e-01 5.12945281e-01
9.19354839e-01 5.32258065e-01 5.10852245e-01
9.51612903e-01 5.32258065e-01 5.08192023e-01
9.83870968e-01 5.32258065e-01 5.05349598e-01
1.00000000e+00 5.32258065e-01 5.00000000e-01
0.00000000e+00 5.64516129e-01 1.00000000e+00
1.61290323e-02 5.64516129e-01 9.04796905e-01
4.83870968e-02 5.64516129e-01 8.36252259e-01
8.06451613e-02 5.64516129e-01 7.68351992e-01
1.12903226e-01 5.64516129e-01 7.11805774e-01
1.45161290e-01 5.64516129e-01 6.69028054e-01
1.77419355e-01 5.64516129e-01 6.37758008e-01
2.09677419e-01 5.64516129e-01 6.15189258e-01
2.41935484e-01 5.64516129e-01 5.98709573e-01
2.74193548e-01 5.64516129e-01 5.86279374e-01
3.06451613e-01 5.64516129e-01 5.76486830e-01
3.38709677e-01 5.64516129e-01 5.68436192e-01
3.70967742e-01 5.64516129e-01 5.61591573e-01
4.03225806e-01 5.64516129e-01 5.55639956e-01
4.35483871e-01 5.64516129e-01 5.50393969e-01
4.67741935e-01 5.64516129e-01 5.45732265e-01
5.00000000e-01 5.64516129e-01 5.41567319e-01
5.32258065e-01 5.64516129e-01 5.37830089e-01
5.64516129e-01 5.64516129e-01 5.34463607e-01
5.96774194e-01 5.64516129e-01 5.31420466e-01
6.29032258e-01 5.64516129e-01 5.28661469e-01
6.61290323e-01 5.64516129e-01 5.26154193e-01
6.93548387e-01 5.64516129e-01 5.23870895e-01
7.25806452e-01 5.64516129e-01 5.21785507e-01
7.58064516e-01 5.64516129e-01 5.19869409e-01
7.90322581e-01 5.64516129e-01 5.18087522e-01
8.22580645e-01 5.64516129e-01 5.16397197e-01
8.54838710e-01 5.64516129e-01 5.14733564e-01
8.87096774e-01 5.64516129e-01 5.12951521e-01
9.19354839e-01 5.64516129e-01 5.10862664e-01
9.51612903e-01 5.64516129e-01 5.08203005e-01
9.83870968e-01 5.64516129e-01 5.05358728e-01
1.00000000e+00 5.64516129e-01 5.00000000e-01
0.00000000e+00 5.96774194e-01 1.00000000e+00
1.61290323e-02 5.96774194e-01 9.04654015e-01
4.83870968e-02 5.96774194e-01 8.36019877e-01
8.06451613e-02 5.96774194e-01 7.68024851e-01
1.12903226e-01 5.96774194e-01 7.11404752e-01
1.45161290e-01 5.96774194e-01 6.68574372e-01
1.77419355e-01 5.96774194e-01 6.37270269e-01
2.09677419e-01 5.96774194e-01 6.14684500e-01
2.41935484e-01 5.96774194e-01 5.98202959e-01
2.74193548e-01 5.96774194e-01 5.85783125e-01
3.06451613e-01 5.96774194e-01 5.76009382e-01
3.38709677e-01 5.96774194e-01 5.67982184e-01
3.70967742e-01 5.96774194e-01 5.61162670e-01
4.03225806e-01 5.96774194e-01 5.55236152e-01
4.35483871e-01 5.96774194e-01 5.50014889e-01
4.67741935e-01 5.96774194e-01 5.45378093e-01
5.00000000e-01 5.96774194e-01 5.41239194e-01
5.32258065e-01 5.96774194e-01 5.37530004e-01
5.64516129e-01 5.96774194e-01 5.34193974e-01
5.96774194e-01 5.96774194e-01 5.31183541e-01
6.29032258e-01 5.96774194e-01 5.28458825e-01
6.61290323e-01 5.96774194e-01 5.25986343e-01
6.93548387e-01 5.96774194e-01 5.23737108e-01
7.25806452e-01 5.96774194e-01 5.21683816e-01
7.58064516e-01 5.96774194e-01 5.19796821e-01
7.90322581e-01 5.96774194e-01 5.18040282e-01
8.22580645e-01 5.96774194e-01 5.16371880e-01
8.54838710e-01 5.96774194e-01 5.14724536e-01
8.87096774e-01 5.96774194e-01 5.12954924e-01
9.19354839e-01 5.96774194e-01 5.10873273e-01
9.51612903e-01 5.96774194e-01 5.08215289e-01
9.83870968e-01 5.96774194e-01 5.05368715e-01
1.00000000e+00 5.96774194e-01 5.00000000e-01
0.00000000e+00 6.29032258e-01 1.00000000e+00
1.61290323e-02 6.29032258e-01 9.04430583e-01
4.83870968e-02 6.29032258e-01 8.35667853e-01
8.06451613e-02 6.29032258e-01 7.67533240e-01